[Molden Format]
[Title]
 Molden file created by orca_2mkl for BaseName=orca

[Atoms] AU
O    1   8         29.8423890827        29.1739636223        30.1820666991 
H    2   1         29.2303349766        30.8776384369        29.9591467648 
H    3   1         29.5019369499        28.5230589501        28.4334475455 
[GTO]
  1 0
s   8 1.0 
    15330.0000000000         0.5107820689
     2299.0000000000         0.9520320559
      522.4000000000         1.6143309227
      147.3000000000         2.4433650471
       47.5500000000         3.0486061870
       16.7600000000         2.6183461361
        6.2070000000         1.0052339944
        0.6882000000        -0.0044964733
s   8 1.0 
    15330.0000000000        -0.1936657939
     2299.0000000000        -0.3632249960
      522.4000000000        -0.6192189910
      147.3000000000        -0.9677187516
       47.5500000000        -1.2940243602
       16.7600000000        -1.3817163263
        6.2070000000        -0.8447542687
        0.6882000000         0.5573175589
s   1 1.0 
        1.7520000000         1.0853271534
s   1 1.0 
        0.2384000000         0.2431586819
p   3 1.0 
       34.4600000000         4.8988750613
        7.7490000000         4.7502609215
        2.2800000000         3.2044979545
p   1 1.0 
        0.7156000000         0.9381623559
p   1 1.0 
        0.2140000000         0.2074709543
d   1 1.0 
        2.3140000000        12.3767310624
d   1 1.0 
        0.6450000000         1.3234257612
f   1 1.0 
        1.4280000000        12.7097950062

  2 0
s   3 1.0 
       33.8700000000         0.2551080577
        5.0950000000         0.4600978881
        1.1590000000         0.6784140671
s   1 1.0 
        0.3258000000         0.3073430538
s   1 1.0 
        0.1027000000         0.1292968442
p   1 1.0 
        1.4070000000         2.1842769845
p   1 1.0 
        0.3880000000         0.4364954740
d   1 1.0 
        1.0570000000         3.1412413909

  3 0
s   3 1.0 
       33.8700000000         0.2551080577
        5.0950000000         0.4600978881
        1.1590000000         0.6784140671
s   1 1.0 
        0.3258000000         0.3073430538
s   1 1.0 
        0.1027000000         0.1292968442
p   1 1.0 
        1.4070000000         2.1842769845
p   1 1.0 
        0.3880000000         0.4364954740
d   1 1.0 
        1.0570000000         3.1412413909

[5D]
[7F]
[9G]
[MO]
 Sym=     1a
 Ene= -1.91237811329202E+01
 Spin= Alpha
 Occup= 2.000000
  1      -0.971487323161
  2       0.002465672002
  3      -0.051091906990
  4      -0.004606160024
  5       0.000630004291
  6      -0.000736787717
  7       0.001273028489
  8       0.000030775429
  9      -0.000300863690
 10      -0.000229441178
 11       0.000295174492
 12      -0.000508317180
 13       0.000429748990
 14      -0.000040681036
 15      -0.000104892532
 16      -0.000028410707
 17       0.000196294207
 18       0.000118690457
 19       0.000196122886
 20       0.000140855687
 21      -0.000109744088
 22       0.000075172328
 23       0.000040997969
 24      -0.000018332994
 25      -0.000056433702
 26       0.000069051076
 27      -0.000003113087
 28       0.000026616916
 29       0.000024447688
 30      -0.000019475332
 31      -0.000440987947
 32       0.001865356560
 33       0.000399135913
 34       0.000065483507
 35      -0.000129048946
 36       0.000088486285
 37       0.000355370438
 38      -0.000982849158
 39       0.000194682890
 40      -0.000413481226
 41       0.000082174278
 42      -0.000273552756
 43      -0.000529804975
 44      -0.000467356717
 45      -0.000438880018
 46       0.000801306583
 47       0.000322068651
 48       0.000005471071
 49      -0.000090073573
 50      -0.000075047645
 51       0.000134631132
 52       0.000081151435
 53       0.000463974185
 54       0.000502271217
 55       0.000203563483
 56       0.000236752707
 57       0.000038676053
 58       0.000090309825
 Sym=     1a
 Ene= -9.99854638091624E-01
 Spin= Alpha
 Occup= 2.000000
  1       0.019479403977
  2      -0.484888573595
  3      -0.141523746115
  4      -0.269646425185
  5       0.026869334445
  6      -0.034416998280
  7       0.050814034913
  8       0.032192323838
  9      -0.039313422840
 10       0.062859161859
 11       0.006525349981
 12      -0.007471098405
 13       0.013231639857
 14      -0.001307352446
 15      -0.001805436400
 16      -0.000652201686
 17       0.002948324897
 18       0.002069917510
 19      -0.003710637118
 20      -0.004040601420
 21      -0.001200862296
 22       0.005227921971
 23       0.003701348317
 24       0.000639983213
 25       0.000572481571
 26       0.001263508601
 27      -0.000469607042
 28      -0.000187844252
 29       0.000974634672
 30      -0.000440537832
 31      -0.098204050921
 32      -0.084639407082
 33      -0.011421616973
 34      -0.004434535791
 35       0.013187726451
 36      -0.000760073996
 37      -0.004051306532
 38       0.013712422263
 39       0.000949954562
 40       0.001763532703
 41      -0.000195808367
 42       0.000224370494
 43       0.002742405833
 44       0.002035595494
 45      -0.087975169970
 46      -0.075755205615
 47      -0.010676512972
 48      -0.001780316893
 49      -0.005011141405
 50      -0.010780476247
 51      -0.001152705358
 52      -0.006708201690
 53      -0.010458530418
 54      -0.001971998923
 55      -0.000677767949
 56      -0.001974176479
 57       0.000595116106
 58      -0.000193916925
 Sym=     1a
 Ene= -5.04929039520006E-01
 Spin= Alpha
 Occup= 2.000000
  1      -0.000720568029
  2      -0.011973911760
  3      -0.002928268666
  4      -0.019773468952
  5      -0.033348112032
  6       0.254155624364
  7       0.151778233552
  8      -0.036274143967
  9       0.282744997779
 10       0.171519057730
 11      -0.018310754635
 12       0.142201496152
 13       0.086018118422
 14      -0.008445987703
 15      -0.001421473273
 16      -0.004972102820
 17      -0.004064959854
 18      -0.004453815460
 19      -0.012777194914
 20      -0.002234794556
 21      -0.007778257192
 22      -0.005722449513
 23      -0.006517130064
 24       0.000152370503
 25       0.000698144628
 26       0.000759928551
 27      -0.001522164523
 28       0.000136681711
 29      -0.001154708243
 30       0.001478051651
 31       0.147117418934
 32       0.209628292456
 33       0.085072232099
 34       0.005908101991
 35      -0.012244491683
 36       0.006421093072
 37       0.009139660979
 38      -0.018362169848
 39       0.010507096290
 40      -0.002415316731
 41       0.001308831209
 42      -0.002856168350
 43      -0.003822714135
 44      -0.003851199803
 45      -0.143203558901
 46      -0.205290754207
 47      -0.088799461083
 48      -0.004009230535
 49      -0.000249356591
 50      -0.013056132217
 51      -0.006842801040
 52       0.000055355584
 53      -0.021796265996
 54      -0.005362274362
 55      -0.002551340125
 56      -0.001692142602
 57      -0.000097080996
 58      -0.000375794591
 Sym=     1a
 Ene= -3.91798351911622E-01
 Spin= Alpha
 Occup= 2.000000
  1      -0.005133210030
  2       0.199295969151
  3       0.062887000336
  4       0.286639376515
  5       0.124370228552
  6      -0.139985069239
  7       0.254885050162
  8       0.139378781836
  9      -0.155354187032
 10       0.287188149600
 11       0.109686042086
 12      -0.123318595220
 13       0.224940122983
 14      -0.002950302746
 15      -0.003513457850
 16       0.002729996790
 17       0.001469916206
 18       0.002378113112
 19      -0.009694787924
 20      -0.010948150849
 21       0.009879830866
 22       0.002636614227
 23       0.006539027742
 24       0.000845830005
 25       0.001448143301
 26       0.000553655397
 27      -0.000691069386
 28      -0.001023092556
 29       0.001270111063
 30      -0.000302052394
 31      -0.089670027186
 32      -0.126815095389
 33      -0.030173323666
 34      -0.000820287362
 35       0.007722823205
 36       0.005231803672
 37       0.006221140559
 38       0.003762005011
 39       0.023716047591
 40       0.001078264974
 41       0.000518249796
 42      -0.002537925586
 43       0.002653114881
 44       0.000941902493
 45      -0.093586085112
 46      -0.133766800312
 47      -0.040800871363
 48       0.000902648628
 49      -0.007211102531
 50      -0.004444678681
 51       0.009108501079
 52      -0.020971133230
 53       0.007739101897
 54      -0.000204803023
 55       0.000294841922
 56      -0.003091316020
 57       0.001877177481
 58       0.000221998745
 Sym=     1a
 Ene= -3.05890482647194E-01
 Spin= Alpha
 Occup= 2.000000
  1       0.000001400760
  2      -0.000001847675
  3      -0.000001338995
  4      -0.000006155446
  5      -0.338570651000
  6      -0.107752330118
  7       0.106028878393
  8      -0.385751486451
  9      -0.122756294853
 10       0.120813301984
 11      -0.353864979261
 12      -0.112610229142
 13       0.110827270955
 14      -0.002049576301
 15       0.003172183215
 16       0.001943134748
 17       0.002689442930
 18      -0.001750800136
 19      -0.007474315370
 20       0.011625172305
 21       0.006896628121
 22       0.009414611923
 23      -0.005830777802
 24       0.001295977565
 25      -0.001216928789
 26      -0.000092559140
 27      -0.001278488800
 28      -0.001573928559
 29      -0.001920532891
 30      -0.002186835143
 31       0.000007582711
 32      -0.000015979124
 33      -0.000004399291
 34      -0.009234083537
 35      -0.002940003814
 36       0.002891858162
 37      -0.031618221843
 38      -0.010045066037
 39       0.009896279114
 40       0.000062449348
 41       0.000325956887
 42      -0.001375932254
 43      -0.002761003602
 44       0.003839580144
 45      -0.000003758270
 46       0.000021982750
 47       0.000005250729
 48      -0.008299626888
 49      -0.002641478965
 50       0.002598190360
 51      -0.031010237971
 52      -0.009861970683
 53       0.009725336166
 54       0.002086518944
 55      -0.003658484800
 56      -0.000622481668
 57       0.000013573084
 58      -0.002102736340
 Sym=     1a
 Ene= 2.12080032677870E-02
 Spin= Alpha
 Occup= 0.000000
  1       0.021773690522
  2      -0.146902029634
  3      -0.056524422251
  4      -1.132040105857
  5       0.048969159758
  6      -0.043439840168
  7       0.112213455451
  8       0.081658900495
  9      -0.082877040595
 10       0.176520576555
 11       0.148337213398
 12      -0.145477008293
 13       0.325805702445
 14       0.000072045117
 15      -0.000329052822
 16       0.002321270551
 17      -0.001267622468
 18      -0.000048349065
 19      -0.010280714388
 20      -0.012456921030
 21      -0.004614501374
 22       0.018626921327
 23       0.012950143557
 24       0.001520852552
 25       0.000853468980
 26       0.004541160860
 27      -0.001456188793
 28       0.000066347921
 29       0.002748484573
 30      -0.001375012916
 31       0.035282211882
 32       0.227643153804
 33       0.735866632159
 34      -0.002598169971
 35       0.009266128399
 36       0.001120901824
 37       0.029743782401
 38      -0.081317899244
 39       0.012307910194
 40      -0.004422126757
 41       0.001670731116
 42      -0.004156750770
 43      -0.006306337299
 44      -0.006103045265
 45       0.048005557206
 46       0.233242688497
 47       0.844638307563
 48      -0.001481690525
 49      -0.005372452373
 50      -0.010194206466
 51       0.014025074478
 52       0.026719648697
 53       0.071962189732
 54       0.008815925287
 55       0.003734058931
 56       0.003927505029
 57       0.000177731617
 58       0.001079818896
 Sym=     1a
 Ene= 9.44428481961653E-02
 Spin= Alpha
 Occup= 0.000000
  1      -0.001213716610
  2       0.008754926726
  3       0.003923971042
  4       0.125074915263
  5      -0.021121731276
  6       0.168855865672
  7       0.104156278651
  8      -0.029761018167
  9       0.217551704463
 10       0.126084188951
 11      -0.082118327115
 12       0.605314463852
 13       0.352957298518
 14       0.002886644521
 15       0.000505000353
 16       0.001772171913
 17       0.001277680180
 18       0.001466165125
 19      -0.028159364616
 20      -0.004075423815
 21      -0.015835800150
 22      -0.015783819546
 23      -0.016243920804
 24       0.000806154137
 25       0.001135943797
 26       0.000445310077
 27      -0.001170273089
 28       0.000446969157
 29      -0.001790974487
 30       0.001766532364
 31      -0.041075407537
 32      -0.221841135505
 33      -1.567885303251
 34       0.005231370006
 35      -0.013354122424
 36       0.003132647777
 37      -0.030257607578
 38       0.088146096404
 39      -0.007040471456
 40       0.004660969912
 41       0.000054929329
 42      -0.000275881439
 43       0.006715523201
 44       0.004653663744
 45       0.044941736075
 46       0.185260794673
 47       1.435571456992
 48      -0.002779940939
 49      -0.003691317208
 50      -0.012627050366
 51       0.010929090086
 52       0.026220624479
 53       0.061536407585
 54       0.004894268816
 55       0.001417784781
 56       0.005974983444
 57      -0.001867924084
 58       0.000601507235
 Sym=     1a
 Ene= 3.50566144147608E-01
 Spin= Alpha
 Occup= 0.000000
  1      -0.001016247475
  2      -0.018740391779
  3      -0.007186640849
  4       0.163479768888
  5      -0.001862149912
  6       0.089858846085
  7       0.085359937630
  8      -0.015482385701
  9       0.178405840212
 10       0.131848453900
 11      -0.089239750956
 12       0.638087909495
 13       0.363597040956
 14       0.016955083691
 15       0.002947309770
 16       0.011053688265
 17       0.006954203171
 18       0.008451590560
 19      -0.037270739522
 20      -0.002871532581
 21      -0.018676511233
 22      -0.028835594664
 23      -0.026618545620
 24       0.006395770547
 25       0.005510589032
 26       0.001039462792
 27      -0.001244444794
 28       0.003181335723
 29      -0.007280856855
 30       0.005529752882
 31      -0.115567313311
 32      -1.174601683889
 33       0.853138228883
 34      -0.011096235879
 35       0.036521758243
 36       0.001684693538
 37       0.010854538918
 38       0.000315656214
 39       0.034967640650
 40       0.014904208229
 41       0.001895509213
 42       0.005487524212
 43       0.011618160129
 44       0.009930524924
 45       0.148685468951
 46       1.333996222939
 47      -1.120747348889
 48       0.004388458265
 49       0.017440956929
 50       0.031740130678
 51      -0.027857801852
 52      -0.016977052074
 53      -0.106232454438
 54       0.012163437442
 55       0.002866985866
 56       0.009625955723
 57       0.001683141361
 58       0.004228722447
 Sym=     1a
 Ene= 4.22097370338546E-01
 Spin= Alpha
 Occup= 0.000000
  1       0.019344484720
  2       0.180775674468
  3       0.048533705056
  4      -0.263197177687
  5      -0.071329556589
  6       0.091512025303
  7      -0.134762336959
  8      -0.088680943203
  9       0.127045086515
 10      -0.154079407767
 11      -0.079887072797
 12       0.238130791889
 13      -0.013025654708
 14       0.003200416082
 15       0.000396294866
 16      -0.006824255437
 17       0.009878769151
 18       0.004571776052
 19      -0.028418309416
 20      -0.018338461674
 21      -0.027715093678
 22       0.027904454564
 23       0.012160411255
 24       0.000917565974
 25       0.001170559140
 26      -0.002611068150
 27       0.000517520670
 28       0.000747250296
 29      -0.003729856977
 30       0.002442893736
 31      -0.133806936622
 32      -1.181938742834
 33       0.839059023320
 34      -0.007831670623
 35       0.022871375283
 36      -0.001760442274
 37       0.075508016416
 38      -0.295787800901
 39      -0.059511831776
 40      -0.007044780393
 41      -0.004290072020
 42       0.000161316977
 43      -0.000146714979
 44       0.000430144375
 45      -0.100329112408
 46      -0.737109747158
 47       0.681177355064
 48      -0.001320301397
 49      -0.003019609478
 50      -0.007283529809
 51       0.013570046841
 52       0.199737679835
 53       0.246313005012
 54       0.009261829981
 55      -0.000405783606
 56       0.010413580106
 57       0.004456028850
 58       0.006831864418
 Sym=     1a
 Ene= 4.97441037767665E-01
 Spin= Alpha
 Occup= 0.000000
  1      -0.024858644156
  2      -0.123609848830
  3       0.020484896028
  4      -3.672332579864
  5      -0.097244526922
  6       0.119858430816
  7      -0.188695456950
  8      -0.058592995467
  9       0.048725091252
 10      -0.137521939954
 11       0.967555951437
 12      -1.185571032842
 13       1.884559283189
 14       0.010018479191
 15       0.011205049429
 16       0.006201348523
 17      -0.017552130876
 18      -0.011513281872
 19      -0.065102069362
 20      -0.089458522302
 21      -0.051638821560
 22       0.163131914138
 23       0.107474308550
 24       0.007270931664
 25       0.003350471518
 26       0.023293200034
 27      -0.006868249371
 28       0.000759612356
 29       0.014224161677
 30      -0.007558442091
 31      -0.012360231753
 32       2.166685834521
 33       0.354228816242
 34       0.007239965715
 35      -0.029827434039
 36      -0.007199972890
 37       0.326008064743
 38      -0.832753777895
 39       0.194678410459
 40      -0.034312987651
 41       0.004374597626
 42      -0.008728361732
 43      -0.050623683174
 44      -0.039385056989
 45      -0.012143242549
 46       1.950069318480
 47       0.218659148077
 48      -0.001536585139
 49       0.017841489407
 50       0.013230729921
 51       0.187188516521
 52       0.182280937768
 53       0.782949821284
 54       0.047752052245
 55       0.016467567100
 56       0.039819349863
 57      -0.007363440921
 58       0.006830664998
 Sym=     1a
 Ene= 5.79925203286121E-01
 Spin= Alpha
 Occup= 0.000000
  1      -0.000004902672
  2      -0.000014009064
  3       0.000003287124
  4      -0.000037027773
  5       0.267933584700
  6       0.085245028309
  7      -0.083932290465
  8       0.675042258074
  9       0.214803210082
 10      -0.211435252754
 11      -0.931699841167
 12      -0.296187153157
 13       0.292029668393
 14       0.001942026710
 15      -0.002883842731
 16      -0.002196123167
 17      -0.003275529483
 18       0.002693091545
 19      -0.010658876546
 20       0.016363354463
 21       0.010194280297
 22       0.014238114717
 23      -0.009561605452
 24       0.000823096870
 25      -0.000619852609
 26      -0.000273932927
 27      -0.001464640842
 28      -0.000862057155
 29      -0.001807548849
 30      -0.002485875867
 31       0.000004934421
 32      -0.000142035188
 33      -0.000238148597
 34       0.011918580009
 35       0.003803763246
 36      -0.003735917791
 37      -0.072545456478
 38      -0.022980999207
 39       0.022702465357
 40      -0.002126573436
 41       0.001960289715
 42       0.006212834788
 43       0.011323587906
 44      -0.013844786672
 45      -0.000006616501
 46       0.000214228874
 47       0.000230034353
 48       0.016314912464
 49       0.005194636234
 50      -0.005100249627
 51      -0.150903007235
 52      -0.048001514483
 53       0.047392188940
 54      -0.008561841854
 55       0.014729478912
 56       0.003560485711
 57       0.001947439765
 58       0.005813256729
 Sym=     1a
 Ene= 5.97626596774866E-01
 Spin= Alpha
 Occup= 0.000000
  1      -0.009506212493
  2      -0.087655863534
  3      -0.008020934592
  4      -1.313246937910
  5       0.006942301942
  6      -0.009843233841
  7       0.012154644603
  8       0.050324128446
  9      -0.061773151707
 10       0.097899367668
 11       0.619835284953
 12      -0.711648593045
 13       1.255926810404
 14       0.015742649068
 15       0.018677357575
 16      -0.025708928823
 17       0.002543612484
 18      -0.009228122629
 19      -0.049333059453
 20      -0.061169907273
 21       0.065548959691
 22       0.011962995938
 23       0.038085895955
 24       0.001549766893
 25       0.007522510368
 26      -0.002879436545
 27      -0.003603837531
 28      -0.007856815848
 29       0.005335495340
 30      -0.000073287990
 31      -0.004876932522
 32       1.190336038578
 33      -0.161512758351
 34       0.011306701405
 35      -0.005798268751
 36       0.030197573109
 37      -0.112830219092
 38      -0.367011793584
 39      -0.733098013777
 40      -0.008621934823
 41      -0.011735900504
 42       0.038804633981
 43      -0.020636942573
 44       0.000207591397
 45      -0.009297162374
 46       1.103911441598
 47      -0.114640636375
 48       0.013819737977
 49      -0.027237888562
 50       0.016455180146
 51      -0.248595999399
 52       0.784320039479
 53       0.003207666578
 54      -0.009709521929
 55      -0.010478197825
 56       0.032842207849
 57      -0.019609791232
 58      -0.001283727111
 Sym=     1a
 Ene= 6.25979329828016E-01
 Spin= Alpha
 Occup= 0.000000
  1      -0.009673573452
  2      -0.008711650644
  3      -0.003628361890
  4      -0.133038168970
  5      -0.028103783215
  6       0.243118547949
  7       0.157174906956
  8       0.002205458647
  9       0.076542711455
 10       0.084439060097
 11       0.275261019091
 12      -2.331710705845
 13      -1.490289820844
 14      -0.021754666962
 15      -0.004319349733
 16      -0.013179909361
 17      -0.008598528438
 18      -0.010203420757
 19       0.304529836624
 20       0.053512641054
 21       0.179342182653
 22       0.141248990071
 23       0.156605723205
 24      -0.022343834624
 25      -0.016085024726
 26      -0.005504196184
 27      -0.000594057812
 28      -0.010713196863
 29       0.017209147103
 30      -0.011161908131
 31      -0.042614766813
 32       1.458478947260
 33       1.463715748120
 34       0.020226284544
 35      -0.052580062157
 36       0.011142755112
 37       0.326302640812
 38      -0.924907576919
 39       0.101955154176
 40      -0.046710461419
 41       0.005654598007
 42      -0.018299979837
 43      -0.062304238699
 44      -0.051140054860
 45       0.053656938841
 46      -1.413852598648
 47      -1.403382355332
 48      -0.009699056797
 49      -0.014927216382
 50      -0.046162341230
 51      -0.173956690161
 52      -0.327849156523
 53      -0.888404648384
 54      -0.077018957841
 55      -0.028394054820
 56      -0.055514534115
 57       0.008126052352
 58      -0.010441278086
 Sym=     1a
 Ene= 6.88942973407898E-01
 Spin= Alpha
 Occup= 0.000000
  1      -0.000005421156
  2      -0.000026562603
  3      -0.000014447519
  4       0.000061823697
  5      -0.015345212274
  6      -0.004890981552
  7       0.004803717107
  8      -0.052097145073
  9      -0.016576249805
 10       0.016301708276
 11       0.086139293856
 12       0.027469874200
 13      -0.026856201052
 14      -0.006504780441
 15       0.012602978419
 16      -0.001780396829
 17      -0.007619320309
 18       0.017257123935
 19      -0.006224458985
 20       0.011272463193
 21       0.000600528759
 22      -0.002612863945
 23       0.009879151961
 24      -0.005832056959
 25       0.006858262541
 26       0.000014182225
 27      -0.001192208177
 28       0.004039313907
 29      -0.002906732433
 30      -0.006505116854
 31       0.000002840787
 32      -0.000030272106
 33      -0.000077889327
 34      -0.044043721187
 35      -0.014015395056
 36       0.013794667595
 37       0.723351506392
 38       0.230269561073
 39      -0.226598908438
 40      -0.006851715696
 41       0.010003426832
 42       0.008401291099
 43       0.012850153474
 44      -0.011288308335
 45       0.000003418473
 46       0.000084546325
 47       0.000018973511
 48       0.048776137181
 49       0.015524441076
 50      -0.015274824407
 51      -0.779212006478
 52      -0.247963992179
 53       0.244038260995
 54       0.009988947649
 55      -0.016369912602
 56      -0.006616797214
 57      -0.007308848751
 58       0.000339037061
 Sym=     1a
 Ene= 7.51889510071614E-01
 Spin= Alpha
 Occup= 0.000000
  1      -0.000002930680
  2      -0.000008141104
  3       0.000003815423
  4      -0.000021009878
  5       0.006365052868
  6       0.002028892129
  7      -0.001993827858
  8       0.044606567370
  9       0.014193716917
 10      -0.013965826737
 11      -1.088869444116
 12      -0.346625094564
 13       0.341001767727
 14       0.009177839549
 15      -0.014082453139
 16      -0.009083479864
 17      -0.012815221862
 18       0.008924899346
 19       0.008912761183
 20      -0.014804497189
 21      -0.005258791853
 22      -0.005213577423
 23      -0.001532870391
 24       0.003930489480
 25      -0.003621357810
 26       0.000334913118
 27      -0.004490624992
 28      -0.006535221606
 29      -0.008640462275
 30      -0.009632107903
 31       0.000000611807
 32       0.000057299341
 33       0.000019704175
 34      -0.054389138529
 35      -0.017312890027
 36       0.017034755506
 37       0.905805489372
 38       0.288277707113
 39      -0.283686047509
 40       0.007728825285
 41      -0.016376341517
 42       0.006532810460
 43       0.018032526930
 44      -0.033185218156
 45      -0.000001380901
 46      -0.000006673029
 47      -0.000030244398
 48      -0.050928685192
 49      -0.016210132341
 50       0.015949882737
 51       0.808428097692
 52       0.257307845286
 53      -0.253199203324
 54      -0.010331020320
 55       0.019893316404
 56      -0.002482487754
 57      -0.011399761106
 58       0.026410544749
 Sym=     1a
 Ene= 9.46009853380404E-01
 Spin= Alpha
 Occup= 0.000000
  1       0.312856609931
  2       0.982316755599
  3       0.320869838251
  4      -6.536801656215
  5       0.013781286797
  6      -0.021454355640
  7       0.022215841830
  8       0.371457505642
  9      -0.530110902604
 10       0.647349226928
 11       0.705420226483
 12      -0.938078489373
 13       1.299110598832
 14       0.006206321896
 15       0.003940944319
 16       0.008418154550
 17      -0.008124867355
 18      -0.003264686708
 19      -0.008073185150
 20      -0.041312565831
 21      -0.090554737205
 22       0.167788223257
 23       0.091882340614
 24       0.016884586252
 25       0.003666806706
 26       0.063118709046
 27      -0.016083543197
 28       0.005112251191
 29       0.037133925376
 30      -0.021582556356
 31      -0.033899544638
 32       2.879529513436
 33       0.667814534358
 34       0.037728250483
 35      -0.103897218194
 36       0.014887300436
 37       0.453533655949
 38      -1.261729568103
 39       0.165828132886
 40      -0.078124224492
 41       0.026850290832
 42      -0.047726662963
 43      -0.128846327062
 44      -0.110868594276
 45      -0.043838971719
 46       2.326945997673
 47       0.572703014177
 48       0.017325520940
 49       0.020058485037
 50       0.075704737512
 51       0.151573552169
 52       0.482159360154
 53       0.974087876972
 54       0.133672450339
 55       0.058489758268
 56       0.074245020559
 57      -0.015133114564
 58       0.008669599644
 Sym=     1a
 Ene= 1.01288229490686E+00
 Spin= Alpha
 Occup= 0.000000
  1       0.024004172974
  2       0.069496013555
  3       0.021830268767
  4      -0.331776073146
  5      -0.001118981995
  6       0.027617500958
  7       0.024489126810
  8       0.003713362778
  9       0.159786106361
 10       0.174251006203
 11      -0.119638681874
 12       1.267545802553
 13       0.906196249147
 14       0.005956751862
 15       0.001814449633
 16       0.002028501315
 17       0.002340130381
 18       0.002163349623
 19      -0.066332900111
 20      -0.015802396587
 21      -0.034703289043
 22      -0.025131644346
 23      -0.028152481210
 24       0.001349413496
 25       0.003153102815
 26       0.005533458795
 27      -0.006670002852
 28       0.000290326174
 29      -0.002345376762
 30       0.004574778299
 31       0.000749209397
 32      -0.721581209029
 33      -0.075008632743
 34       0.014188862124
 35       0.022647186769
 36       0.068325614504
 37      -0.358694739667
 38      -0.039332818128
 39      -1.185337023485
 40      -0.000023785497
 41      -0.007333717631
 42       0.015538579306
 43       0.002699665930
 44       0.008138541172
 45      -0.008244671216
 46       0.962795553584
 47       0.144998309125
 48      -0.024214231461
 49       0.071415103916
 50      -0.004740689906
 51       0.496534986713
 52      -0.919589266461
 53       0.650902955042
 54       0.028258627944
 55       0.014159848015
 56       0.009700104882
 57      -0.001848027478
 58       0.000499620210
 Sym=     1a
 Ene= 1.24671171208731E+00
 Spin= Alpha
 Occup= 0.000000
  1      -0.097438896431
  2      -0.299205382852
  3      -0.074622591212
  4      -1.165609094104
  5       0.018388627294
  6       0.094080068062
  7       0.154296554892
  8       0.034778767870
  9       0.612292036545
 10       0.733306699501
 11       0.026860241971
 12       0.434999747122
 13       0.527922596343
 14       0.006788118328
 15       0.002011867939
 16       0.007613991564
 17      -0.002079412332
 18       0.000960331127
 19       0.014955444550
 20       0.010594168547
 21       0.031673373059
 22      -0.032593760353
 23      -0.013255139538
 24      -0.001774471608
 25      -0.001189087538
 26      -0.005890266482
 27       0.002024682693
 28       0.000441787780
 29      -0.004331323104
 30       0.002159195657
 31      -0.086033569450
 32      -0.508245922126
 33      -0.614141033912
 34       0.001399979963
 35      -0.013578601159
 36      -0.009327628567
 37      -0.239880144271
 38       0.854201190804
 39       0.102092789048
 40       0.047795583879
 41       0.006220006152
 42       0.002091615367
 43       0.051198913684
 44       0.036299324740
 45       0.184202047580
 46       1.449544393526
 47       0.968058830423
 48      -0.018071230719
 49      -0.047947272460
 50      -0.106435017656
 51       0.328855674849
 52       0.925393490325
 53       1.990572024086
 54       0.053356988101
 55       0.016448041826
 56       0.050584260260
 57      -0.009289344416
 58       0.009221236217
 Sym=     1a
 Ene= 1.30294591306807E+00
 Spin= Alpha
 Occup= 0.000000
  1       0.257287371916
  2       0.746982380665
  3       0.212258419599
  4       2.064496574166
  5      -0.079012153055
  6       0.154851797851
  7      -0.094951243505